LAMMPS data file from restart file: timestep = 0, procs = 1

100 atoms
100 bonds
100 angles

4 atom types
1 bond types
1 angle types

-80 80 xlo xhi 
-80 80 ylo yhi 
-80 80 zlo zhi 

Masses 

 1 1 
 2 1 
 3 1 
 4 1 

Atoms 

1 1 1 -6.760983 0.833707 1.325633 0 0 0 
2 1 1 -7.193089 -0.190917 0.880280 0 0 0 
3 1 1 -7.2849775 -0.7274365 0.63701 0 0 0 
4 1 1 -7.376866 -1.263956 0.393740 0 0 0 
5 1 1 -7.350612 -1.799993 0.141317 0 0 0 
6 1 1 -7.324358 -2.336030 -0.111106 0 0 0 
7 1 1 -7.192968 -2.8524375 -0.3636495 0 0 0 
8 1 1 -7.061578 -3.368845 -0.616193 0 0 0 
9 1 1 -6.8366135 -3.8509295 -0.8635575 0 0 0 
10 1 1 -6.611649 -4.333014 -1.110922 0 0 0 
11 1 1 -6.2986495 -4.7646375 -1.350218 0 0 0 
12 1 1 -5.985650 -5.196261 -1.589514 0 0 0 
13 1 1 -5.5869035 -5.554422 -1.817851 0 0 0 
14 1 1 -5.188157 -5.912583 -2.046188 0 0 0 
15 1 1 -4.7094445 -6.1665715 -2.257905 0 0 0 
16 1 1 -4.230732 -6.420560 -2.469622 0 0 0 
17 1 1 -3.6915635 -6.536776 -2.6540015 0 0 0 
18 1 1 -3.152395 -6.652992 -2.838381 0 0 0 
19 1 1 -2.5893815 -6.607951 -2.981453 0 0 0 
20 1 1 -2.026368 -6.562910 -3.124525 0 0 0 
21 1 1 -1.4861155 -6.3560095 -3.211476 0 0 0 
22 1 1 -0.945863 -6.149109 -3.298427 0 0 0 
23 1 1 -0.4693185 -5.803473 -3.316371 0 0 0 
24 1 1 0.007226 -5.457837 -3.334315 0 0 0 
25 1 1 0.3936885 -5.0104365 -3.2718115 0 0 0 
26 1 1 0.780151 -4.563036 -3.209308 0 0 0 
27 1 1 1.346176 -3.545155 -2.905341 0 0 0 
28 1 1 1.699520 -2.482474 -2.412779 0 0 0 
29 1 1 1.870050 -1.444120 -1.727528 0 0 0 
30 1 1 1.932914 -0.478747 -0.858500 0 0 0 
31 1 1 1.989998 0.404492 0.128551 0 0 0 
32 1 1 2.132829 1.229443 1.130054 0 0 0 
33 1 1 2.343824 2.088837 2.046291 0 0 0 
34 1 1 2.495808 3.105513 2.767430 0 0 0 
35 1 1 2.452935 4.283327 3.173041 0 0 0 
36 1 1 2.150894 5.487634 3.176172 0 0 0 
37 1 1 1.604379 6.519726 2.766467 0 0 0 
38 1 1 0.886130 7.191730 2.020037 0 0 0 
39 1 1 0.104775 7.375988 1.084049 0 0 0 
40 1 1 -0.617328 7.034688 0.144448 0 0 0 
41 1 1 -1.169623 6.229728 -0.614025 0 0 0 
42 1 1 -1.476722 5.108518 -1.052875 0 0 0 
43 1 1 -1.522726 3.856520 -1.133564 0 0 0 
44 1 1 -1.370020 2.599223 -0.986879 0 0 0 
45 1 1 -1.160952 1.335663 -0.878009 0 0 0 
46 1 1 -1.034500 0.046572 -0.883308 0 0 0 
47 1 1 -1.004151 -1.248540 -0.806714 0 0 0 
48 1 1 -0.927798 -2.484642 -0.494799 0 0 0 
49 1 1 -0.651530 -3.596700 0.009084 0 0 0 
50 1 1 -0.109110 -4.535337 0.584984 0 0 0 
51 1 1 0.697053 -5.229982 1.156789 0 0 0 
52 1 1 1.707227 -5.597055 1.686684 0 0 0 
53 1 1 2.812782 -5.587661 2.144081 0 0 0 
54 1 1 3.892082 -5.205414 2.504650 0 0 0 
55 1 1 4.838668 -4.493909 2.743103 0 0 0 
56 1 1 5.568478 -3.522274 2.825478 0 0 0 
57 1 1 6.020816 -2.384925 2.706974 0 0 0 
58 1 1 6.163647 -1.204945 2.344959 0 0 0 
59 1 1 6.008532 -0.124681 1.723536 0 0 0 
60 1 1 5.610870 0.734473 0.872332 0 0 0 
61 1 1 5.040028 1.326751 -0.127244 0 0 0 
62 1 1 4.335268 1.712612 -1.159095 0 0 0 
63 1 1 3.490807 1.993697 -2.105440 0 0 0 
64 1 1 2.508091 2.195779 -2.894021 0 0 0 
65 1 1 1.415544 2.286584 -3.508217 0 0 0 
66 1 1 0.239658 2.233594 -3.921777 0 0 0 
67 1 1 -0.979342 2.021396 -4.061235 0 0 0 
68 1 1 -2.146557 1.653841 -3.844219 0 0 0 
69 1 1 -3.113135 1.156221 -3.248087 0 0 0 
70 1 1 -3.731908 0.587065 -2.337149 0 0 0 
71 1 1 -3.926043 0.028748 -1.236893 0 0 0 
72 1 1 -3.727573 -0.449603 -0.078108 0 0 0 
73 1 1 -3.197196 -0.821734 1.018293 0 0 0 
74 1 1 -2.338524 -1.104506 1.897438 0 0 0 
75 1 1 -1.225262 -1.341032 2.427815 0 0 0 
76 1 1 0.004336 -1.571295 2.557640 0 0 0 
77 1 1 1.225263 -1.804690 2.305458 0 0 0 
78 1 1 2.358276 -2.008940 1.726427 0 0 0 
79 1 1 3.385550 -2.138042 0.918336 0 0 0 
80 1 1 4.366338 -2.138524 0.038469 0 0 0 
81 1 1 5.347126 -1.921026 -0.766731 0 0 0 
82 1 1 6.294676 -1.429668 -1.425006 0 0 0 
83 1 1 7.122758 -0.670714 -1.924312 0 0 0 
84 1 1 7.735028 0.313206 -2.271152 0 0 0 
85 1 1 8.038273 1.454167 -2.461915 0 0 0 
86 1 1 7.963605 2.638965 -2.480943 0 0 0 
87 1 1 7.508136 3.720433 -2.325105 0 0 0 
88 1 1 6.743642 4.572601 -2.021138 0 0 0 
89 1 1 5.773693 5.129473 -1.617695 0 0 0 
90 1 1 4.693429 5.374671 -1.165839 0 0 0 
91 1 1 3.578962 5.325293 -0.702180 0 0 0 
92 1 1 2.482079 5.043004 -0.221902 0 0 0 
93 1 1 1.410486 4.655940 0.348217 0 0 0 
94 1 1 0.343228 4.326440 1.059963 0 0 0 
95 1 1 -0.756305 4.108221 1.728113 0 0 0 
96 1 1 -1.919184 3.902765 2.141912 0 0 0 
97 1 1 -3.096034 3.602411 2.283298 0 0 0 
98 1 1 -4.217726 3.152963 2.218748 0 0 0 
99 1 1 -5.231994 2.536599 2.013534 0 0 0 
100 1 1 -6.095001 1.756448 1.708603 0 0 0 
Bonds

1 1 1 2
2 1 2 3
3 1 3 4
4 1 4 5
5 1 5 6
6 1 6 7
7 1 7 8
8 1 8 9
9 1 9 10
10 1 10 11
11 1 11 12
12 1 12 13
13 1 13 14
14 1 14 15
15 1 15 16
16 1 16 17
17 1 17 18
18 1 18 19
19 1 19 20
20 1 20 21
21 1 21 22
22 1 22 23
23 1 23 24
24 1 24 25
25 1 25 26
26 1 26 27
27 1 27 28
28 1 28 29
29 1 29 30
30 1 30 31
31 1 31 32
32 1 32 33
33 1 33 34
34 1 34 35
35 1 35 36
36 1 36 37
37 1 37 38
38 1 38 39
39 1 39 40
40 1 40 41
41 1 41 42
42 1 42 43
43 1 43 44
44 1 44 45
45 1 45 46
46 1 46 47
47 1 47 48
48 1 48 49
49 1 49 50
50 1 50 51
51 1 51 52
52 1 52 53
53 1 53 54
54 1 54 55
55 1 55 56
56 1 56 57
57 1 57 58
58 1 58 59
59 1 59 60
60 1 60 61
61 1 61 62
62 1 62 63
63 1 63 64
64 1 64 65
65 1 65 66
66 1 66 67
67 1 67 68
68 1 68 69
69 1 69 70
70 1 70 71
71 1 71 72
72 1 72 73
73 1 73 74
74 1 74 75
75 1 75 76
76 1 76 77
77 1 77 78
78 1 78 79
79 1 79 80
80 1 80 81
81 1 81 82
82 1 82 83
83 1 83 84
84 1 84 85
85 1 85 86
86 1 86 87
87 1 87 88
88 1 88 89
89 1 89 90
90 1 90 91
91 1 91 92
92 1 92 93
93 1 93 94
94 1 94 95
95 1 95 96
96 1 96 97
97 1 97 98
98 1 98 99
99 1 99 100
100 1 100 1

Angles

1 1 1 2 3
2 1 2 3 4
3 1 3 4 5
4 1 4 5 6
5 1 5 6 7
6 1 6 7 8
7 1 7 8 9
8 1 8 9 10
9 1 9 10 11
10 1 10 11 12
11 1 11 12 13
12 1 12 13 14
13 1 13 14 15
14 1 14 15 16
15 1 15 16 17
16 1 16 17 18
17 1 17 18 19
18 1 18 19 20
19 1 19 20 21
20 1 20 21 22
21 1 21 22 23
22 1 22 23 24
23 1 23 24 25
24 1 24 25 26
25 1 25 26 27
26 1 26 27 28
27 1 27 28 29
28 1 28 29 30
29 1 29 30 31
30 1 30 31 32
31 1 31 32 33
32 1 32 33 34
33 1 33 34 35
34 1 34 35 36
35 1 35 36 37
36 1 36 37 38
37 1 37 38 39
38 1 38 39 40
39 1 39 40 41
40 1 40 41 42
41 1 41 42 43
42 1 42 43 44
43 1 43 44 45
44 1 44 45 46
45 1 45 46 47
46 1 46 47 48
47 1 47 48 49
48 1 48 49 50
49 1 49 50 51
50 1 50 51 52
51 1 51 52 53
52 1 52 53 54
53 1 53 54 55
54 1 54 55 56
55 1 55 56 57
56 1 56 57 58
57 1 57 58 59
58 1 58 59 60
59 1 59 60 61
60 1 60 61 62
61 1 61 62 63
62 1 62 63 64
63 1 63 64 65
64 1 64 65 66
65 1 65 66 67
66 1 66 67 68
67 1 67 68 69
68 1 68 69 70
69 1 69 70 71
70 1 70 71 72
71 1 71 72 73
72 1 72 73 74
73 1 73 74 75
74 1 74 75 76
75 1 75 76 77
76 1 76 77 78
77 1 77 78 79
78 1 78 79 80
79 1 79 80 81
80 1 80 81 82
81 1 81 82 83
82 1 82 83 84
83 1 83 84 85
84 1 84 85 86
85 1 85 86 87
86 1 86 87 88
87 1 87 88 89
88 1 88 89 90
89 1 89 90 91
90 1 90 91 92
91 1 91 92 93
92 1 92 93 94
93 1 93 94 95
94 1 94 95 96
95 1 95 96 97
96 1 96 97 98
97 1 97 98 99
98 1 98 99 100
99 1 99 100 1
100 1 100 1 2